; ITP file created by ByteFF-ML, 2026-01-21 17:09:07.121143

[ moleculetype ]
;name             nrexcl
 FSI                   3

[ atoms ]
;       nr            type      resi   res      atom      cgnr      charge          mass ; qtot
         1            o0bf         1   UNL        o0         1    -0.49638       15.9990 ; qtot   -0.496
         2            s1bf         1   UNL        s1         2     1.12832       32.0670 ; qtot    0.632
         3            o2bf         1   UNL        o2         3    -0.49638       15.9990 ; qtot    0.136
         4            f3bf         1   UNL        f3         4    -0.29341       18.9980 ; qtot   -0.158
         5            n4bf         1   UNL        n4         5    -0.68429       14.0070 ; qtot   -0.842
         6            s5bf         1   UNL        s5         6     1.12832       32.0670 ; qtot    0.286
         7            o6bf         1   UNL        o6         7    -0.49638       15.9990 ; qtot   -0.210
         8            o7bf         1   UNL        o7         8    -0.49638       15.9990 ; qtot   -0.707
         9            f8bf         1   UNL        f8         9    -0.29342       18.9980 ; qtot   -1.000

[ bonds ]
;       ai        aj funct               r               k
         1         2     1        0.144449   493917.931250
         2         3     1        0.144449   493917.931250
         2         4     1        0.178639   116187.616602
         2         5     1        0.159167   206776.962451
         5         6     1        0.159167   206776.975220
         6         7     1        0.144449   493917.931250
         6         8     1        0.144449   493917.931250
         6         9     1        0.178639   116187.591064

[ angles ]
;       ai        aj        ak funct           theta             cth
         1         2         3     1      120.719002      698.115109
         1         2         4     1      103.982437      541.600847
         1         2         5     1      112.426872      527.089321
         2         5         6     1      122.515030      604.385491
         3         2         4     1      103.982437      541.600847
         3         2         5     1      112.426872      527.089321
         4         2         5     1       99.351219      453.400779
         5         6         7     1      112.426880      527.089193
         5         6         8     1      112.426880      527.089193
         5         6         9     1       99.351227      453.400715
         7         6         8     1      120.719032      698.114918
         7         6         9     1      103.982437      541.600528
         8         6         9     1      103.982430      541.600464

[ dihedrals ] ; propers for gromacs 4.5 or higher, use funct 9
;       ai        aj        ak        al funct           phase               k        pn
         1         2         5         6     9        0.000000       10.562523         1
         1         2         5         6     9      180.000000        1.976977         2
         1         2         5         6     9        0.000000        0.794312         3
         1         2         5         6     9      180.000000       -0.027950         4
         2         5         6         7     9        0.000000       10.562523         1
         2         5         6         7     9      180.000000        1.976975         2
         2         5         6         7     9        0.000000        0.794312         3
         2         5         6         7     9      180.000000       -0.027950         4
         2         5         6         8     9        0.000000       10.562523         1
         2         5         6         8     9      180.000000        1.976975         2
         2         5         6         8     9        0.000000        0.794312         3
         2         5         6         8     9      180.000000       -0.027950         4
         2         5         6         9     9        0.000000        2.779220         1
         2         5         6         9     9      180.000000       -0.758148         2
         2         5         6         9     9        0.000000        0.258347         3
         2         5         6         9     9      180.000000        0.041773         4
         3         2         5         6     9        0.000000       10.562519         1
         3         2         5         6     9      180.000000        1.976980         2
         3         2         5         6     9        0.000000        0.794311         3
         3         2         5         6     9      180.000000       -0.027950         4
         4         2         5         6     9        0.000000        2.779246         1
         4         2         5         6     9      180.000000       -0.758147         2
         4         2         5         6     9        0.000000        0.258347         3
         4         2         5         6     9      180.000000        0.041773         4

[ pairs ]
;       ai        aj funct
         1         6     1
         2         7     1
         2         8     1
         2         9     1
         3         6     1
         4         6     1
